# vtk DataFile Version 3.0
vtk output
ASCII
DATASET POLYDATA
POINTS 218 double
0 0 0 0.166667 0.166667 0 0.166667 0 0 
0.166667 0 0.166667 0 0 0.166667 0 0.166667 0 
0 0.166667 0.166667 0.333333 0.166667 0 0.333333 0 0 
0.333333 0 0.166667 0.5 0.166667 0 0.5 0 0 
0.5 0 0.166667 0.666667 0.166667 0 0.666667 0 0 
0.666667 0 0.166667 0.833333 0.166667 0 0.833333 0 0 
0.833333 0 0.166667 1 0.166667 0 1 0 0 
1 0 0.166667 1 0.166667 0.166667 0.166667 0.333333 0 
0 0.333333 0 0 0.333333 0.166667 0.333333 0.333333 0 
0.5 0.333333 0 0.666667 0.333333 0 0.833333 0.333333 0 
1 0.333333 0 1 0.333333 0.166667 0.166667 0.5 0 
0 0.5 0 0 0.5 0.166667 0.333333 0.5 0 
0.5 0.5 0 0.666667 0.5 0 0.833333 0.5 0 
1 0.5 0 1 0.5 0.166667 0.166667 0.666667 0 
0 0.666667 0 0 0.666667 0.166667 0.333333 0.666667 0 
0.5 0.666667 0 0.666667 0.666667 0 0.833333 0.666667 0 
1 0.666667 0 1 0.666667 0.166667 0.166667 0.833333 0 
0 0.833333 0 0 0.833333 0.166667 0.333333 0.833333 0 
0.5 0.833333 0 0.666667 0.833333 0 0.833333 0.833333 0 
1 0.833333 0 1 0.833333 0.166667 0.166667 1 0 
0 1 0 0 1 0.166667 0.333333 1 0 
0.5 1 0 0.666667 1 0 0.833333 1 0 
1 1 0 1 1 0.166667 0.166667 1 0.166667 
0.333333 1 0.166667 0.5 1 0.166667 0.666667 1 0.166667 
0.833333 1 0.166667 0.166667 0 0.333333 0 0 0.333333 
0 0.166667 0.333333 0.333333 0 0.333333 0.5 0 0.333333 
0.666667 0 0.333333 0.833333 0 0.333333 1 0 0.333333 
1 0.166667 0.333333 0 0.333333 0.333333 1 0.333333 0.333333 
0 0.5 0.333333 1 0.5 0.333333 0 0.666667 0.333333 
1 0.666667 0.333333 0 0.833333 0.333333 1 0.833333 0.333333 
0 1 0.333333 1 1 0.333333 0.166667 1 0.333333 
0.333333 1 0.333333 0.5 1 0.333333 0.666667 1 0.333333 
0.833333 1 0.333333 0.166667 0 0.5 0 0 0.5 
0 0.166667 0.5 0.333333 0 0.5 0.5 0 0.5 
0.666667 0 0.5 0.833333 0 0.5 1 0 0.5 
1 0.166667 0.5 0 0.333333 0.5 1 0.333333 0.5 
0 0.5 0.5 1 0.5 0.5 0 0.666667 0.5 
1 0.666667 0.5 0 0.833333 0.5 1 0.833333 0.5 
0 1 0.5 1 1 0.5 0.166667 1 0.5 
0.333333 1 0.5 0.5 1 0.5 0.666667 1 0.5 
0.833333 1 0.5 0.166667 0 0.666667 0 0 0.666667 
0 0.166667 0.666667 0.333333 0 0.666667 0.5 0 0.666667 
0.666667 0 0.666667 0.833333 0 0.666667 1 0 0.666667 
1 0.166667 0.666667 0 0.333333 0.666667 1 0.333333 0.666667 
0 0.5 0.666667 1 0.5 0.666667 0 0.666667 0.666667 
1 0.666667 0.666667 0 0.833333 0.666667 1 0.833333 0.666667 
0 1 0.666667 1 1 0.666667 0.166667 1 0.666667 
0.333333 1 0.666667 0.5 1 0.666667 0.666667 1 0.666667 
0.833333 1 0.666667 0.166667 0 0.833333 0 0 0.833333 
0 0.166667 0.833333 0.333333 0 0.833333 0.5 0 0.833333 
0.666667 0 0.833333 0.833333 0 0.833333 1 0 0.833333 
1 0.166667 0.833333 0 0.333333 0.833333 1 0.333333 0.833333 
0 0.5 0.833333 1 0.5 0.833333 0 0.666667 0.833333 
1 0.666667 0.833333 0 0.833333 0.833333 1 0.833333 0.833333 
0 1 0.833333 1 1 0.833333 0.166667 1 0.833333 
0.333333 1 0.833333 0.5 1 0.833333 0.666667 1 0.833333 
0.833333 1 0.833333 0.166667 0 1 0 0 1 
0 0.166667 1 0.333333 0 1 0.5 0 1 
0.666667 0 1 0.833333 0 1 1 0 1 
1 0.166667 1 0 0.333333 1 1 0.333333 1 
0 0.5 1 1 0.5 1 0 0.666667 1 
1 0.666667 1 0 0.833333 1 1 0.833333 1 
0 1 1 1 1 1 0.166667 1 1 
0.333333 1 1 0.5 1 1 0.666667 1 1 
0.833333 1 1 0.166667 0.166667 1 0.333333 0.166667 1 
0.5 0.166667 1 0.666667 0.166667 1 0.833333 0.166667 1 
0.166667 0.333333 1 0.333333 0.333333 1 0.5 0.333333 1 
0.666667 0.333333 1 0.833333 0.333333 1 0.166667 0.5 1 
0.333333 0.5 1 0.5 0.5 1 0.666667 0.5 1 
0.833333 0.5 1 0.166667 0.666667 1 0.333333 0.666667 1 
0.5 0.666667 1 0.666667 0.666667 1 0.833333 0.666667 1 
0.166667 0.833333 1 0.333333 0.833333 1 0.5 0.833333 1 
0.666667 0.833333 1 0.833333 0.833333 1 
POLYGONS 432 1728
3 0 1 2 
3 0 3 2 
3 0 3 4 
3 0 1 5 
3 0 6 4 
3 0 6 5 
3 2 7 8 
3 2 9 8 
3 2 9 3 
3 2 7 1 
3 8 10 11 
3 8 12 11 
3 8 12 9 
3 8 10 7 
3 11 13 14 
3 11 15 14 
3 11 15 12 
3 11 13 10 
3 14 16 17 
3 14 18 17 
3 14 18 15 
3 14 16 13 
3 17 19 20 
3 17 21 20 
3 17 21 18 
3 17 19 16 
3 20 19 22 
3 20 21 22 
3 5 23 1 
3 5 23 24 
3 5 25 6 
3 5 25 24 
3 1 26 7 
3 1 26 23 
3 7 27 10 
3 7 27 26 
3 10 28 13 
3 10 28 27 
3 13 29 16 
3 13 29 28 
3 16 30 19 
3 16 30 29 
3 19 30 31 
3 19 22 31 
3 24 32 23 
3 24 32 33 
3 24 34 25 
3 24 34 33 
3 23 35 26 
3 23 35 32 
3 26 36 27 
3 26 36 35 
3 27 37 28 
3 27 37 36 
3 28 38 29 
3 28 38 37 
3 29 39 30 
3 29 39 38 
3 30 39 40 
3 30 31 40 
3 33 41 32 
3 33 41 42 
3 33 43 34 
3 33 43 42 
3 32 44 35 
3 32 44 41 
3 35 45 36 
3 35 45 44 
3 36 46 37 
3 36 46 45 
3 37 47 38 
3 37 47 46 
3 38 48 39 
3 38 48 47 
3 39 48 49 
3 39 40 49 
3 42 50 41 
3 42 50 51 
3 42 52 43 
3 42 52 51 
3 41 53 44 
3 41 53 50 
3 44 54 45 
3 44 54 53 
3 45 55 46 
3 45 55 54 
3 46 56 47 
3 46 56 55 
3 47 57 48 
3 47 57 56 
3 48 57 58 
3 48 49 58 
3 51 59 50 
3 51 59 60 
3 51 61 52 
3 51 61 60 
3 50 62 53 
3 50 62 59 
3 53 63 54 
3 53 63 62 
3 54 64 55 
3 54 64 63 
3 55 65 56 
3 55 65 64 
3 56 66 57 
3 56 66 65 
3 57 66 67 
3 57 58 67 
3 60 59 68 
3 60 61 68 
3 59 62 69 
3 59 68 69 
3 62 63 70 
3 62 69 70 
3 63 64 71 
3 63 70 71 
3 64 65 72 
3 64 71 72 
3 65 66 67 
3 65 72 67 
3 4 73 3 
3 4 73 74 
3 4 75 74 
3 4 75 6 
3 3 76 9 
3 3 76 73 
3 9 77 12 
3 9 77 76 
3 12 78 15 
3 12 78 77 
3 15 79 18 
3 15 79 78 
3 18 80 21 
3 18 80 79 
3 21 22 81 
3 21 80 81 
3 6 82 75 
3 6 82 25 
3 22 31 83 
3 22 81 83 
3 25 84 82 
3 25 84 34 
3 31 40 85 
3 31 83 85 
3 34 86 84 
3 34 86 43 
3 40 49 87 
3 40 85 87 
3 43 88 86 
3 43 88 52 
3 49 58 89 
3 49 87 89 
3 52 90 88 
3 52 90 61 
3 58 67 91 
3 58 89 91 
3 61 68 92 
3 61 90 92 
3 68 69 93 
3 68 92 93 
3 69 70 94 
3 69 93 94 
3 70 71 95 
3 70 94 95 
3 71 72 96 
3 71 95 96 
3 72 67 91 
3 72 96 91 
3 74 97 73 
3 74 97 98 
3 74 99 98 
3 74 99 75 
3 73 100 76 
3 73 100 97 
3 76 101 77 
3 76 101 100 
3 77 102 78 
3 77 102 101 
3 78 103 79 
3 78 103 102 
3 79 104 80 
3 79 104 103 
3 80 81 105 
3 80 104 105 
3 75 106 99 
3 75 106 82 
3 81 83 107 
3 81 105 107 
3 82 108 106 
3 82 108 84 
3 83 85 109 
3 83 107 109 
3 84 110 108 
3 84 110 86 
3 85 87 111 
3 85 109 111 
3 86 112 110 
3 86 112 88 
3 87 89 113 
3 87 111 113 
3 88 114 112 
3 88 114 90 
3 89 91 115 
3 89 113 115 
3 90 92 116 
3 90 114 116 
3 92 93 117 
3 92 116 117 
3 93 94 118 
3 93 117 118 
3 94 95 119 
3 94 118 119 
3 95 96 120 
3 95 119 120 
3 96 91 115 
3 96 120 115 
3 98 121 97 
3 98 121 122 
3 98 123 122 
3 98 123 99 
3 97 124 100 
3 97 124 121 
3 100 125 101 
3 100 125 124 
3 101 126 102 
3 101 126 125 
3 102 127 103 
3 102 127 126 
3 103 128 104 
3 103 128 127 
3 104 105 129 
3 104 128 129 
3 99 130 123 
3 99 130 106 
3 105 107 131 
3 105 129 131 
3 106 132 130 
3 106 132 108 
3 107 109 133 
3 107 131 133 
3 108 134 132 
3 108 134 110 
3 109 111 135 
3 109 133 135 
3 110 136 134 
3 110 136 112 
3 111 113 137 
3 111 135 137 
3 112 138 136 
3 112 138 114 
3 113 115 139 
3 113 137 139 
3 114 116 140 
3 114 138 140 
3 116 117 141 
3 116 140 141 
3 117 118 142 
3 117 141 142 
3 118 119 143 
3 118 142 143 
3 119 120 144 
3 119 143 144 
3 120 115 139 
3 120 144 139 
3 122 145 121 
3 122 145 146 
3 122 147 146 
3 122 147 123 
3 121 148 124 
3 121 148 145 
3 124 149 125 
3 124 149 148 
3 125 150 126 
3 125 150 149 
3 126 151 127 
3 126 151 150 
3 127 152 128 
3 127 152 151 
3 128 129 153 
3 128 152 153 
3 123 154 147 
3 123 154 130 
3 129 131 155 
3 129 153 155 
3 130 156 154 
3 130 156 132 
3 131 133 157 
3 131 155 157 
3 132 158 156 
3 132 158 134 
3 133 135 159 
3 133 157 159 
3 134 160 158 
3 134 160 136 
3 135 137 161 
3 135 159 161 
3 136 162 160 
3 136 162 138 
3 137 139 163 
3 137 161 163 
3 138 140 164 
3 138 162 164 
3 140 141 165 
3 140 164 165 
3 141 142 166 
3 141 165 166 
3 142 143 167 
3 142 166 167 
3 143 144 168 
3 143 167 168 
3 144 139 163 
3 144 168 163 
3 146 169 145 
3 146 169 170 
3 146 171 170 
3 146 171 147 
3 145 172 148 
3 145 172 169 
3 148 173 149 
3 148 173 172 
3 149 174 150 
3 149 174 173 
3 150 175 151 
3 150 175 174 
3 151 176 152 
3 151 176 175 
3 152 153 177 
3 152 176 177 
3 147 178 171 
3 147 178 154 
3 153 155 179 
3 153 177 179 
3 154 180 178 
3 154 180 156 
3 155 157 181 
3 155 179 181 
3 156 182 180 
3 156 182 158 
3 157 159 183 
3 157 181 183 
3 158 184 182 
3 158 184 160 
3 159 161 185 
3 159 183 185 
3 160 186 184 
3 160 186 162 
3 161 163 187 
3 161 185 187 
3 162 164 188 
3 162 186 188 
3 164 165 189 
3 164 188 189 
3 165 166 190 
3 165 189 190 
3 166 167 191 
3 166 190 191 
3 167 168 192 
3 167 191 192 
3 168 163 187 
3 168 192 187 
3 170 169 193 
3 170 171 193 
3 169 172 194 
3 169 193 194 
3 172 173 195 
3 172 194 195 
3 173 174 196 
3 173 195 196 
3 174 175 197 
3 174 196 197 
3 175 176 177 
3 175 197 177 
3 171 193 198 
3 171 178 198 
3 193 194 199 
3 193 198 199 
3 194 195 200 
3 194 199 200 
3 195 196 201 
3 195 200 201 
3 196 197 202 
3 196 201 202 
3 197 177 179 
3 197 202 179 
3 178 198 203 
3 178 180 203 
3 198 199 204 
3 198 203 204 
3 199 200 205 
3 199 204 205 
3 200 201 206 
3 200 205 206 
3 201 202 207 
3 201 206 207 
3 202 179 181 
3 202 207 181 
3 180 203 208 
3 180 182 208 
3 203 204 209 
3 203 208 209 
3 204 205 210 
3 204 209 210 
3 205 206 211 
3 205 210 211 
3 206 207 212 
3 206 211 212 
3 207 181 183 
3 207 212 183 
3 182 208 213 
3 182 184 213 
3 208 209 214 
3 208 213 214 
3 209 210 215 
3 209 214 215 
3 210 211 216 
3 210 215 216 
3 211 212 217 
3 211 216 217 
3 212 183 185 
3 212 217 185 
3 184 213 188 
3 184 186 188 
3 213 214 189 
3 213 188 189 
3 214 215 190 
3 214 189 190 
3 215 216 191 
3 215 190 191 
3 216 217 192 
3 216 191 192 
3 217 185 187 
3 217 192 187 

POINT_DATA 218
VECTORS u double
0 0 0 -0.00845977 0.0304958 -0.0245941 0.00315117 0.0334497 -0.0387294 
0.00992452 0.0195019 -0.0399367 0 0 0 0 0 0 
0 0 0 -0.0125286 0.0700983 -0.046237 0.00562907 0.0763053 -0.074609 
0.0145208 0.0478589 -0.0779046 -0.0149728 0.117609 -0.063035 0.00730084 0.128628 -0.105031 
0.0163908 0.0854802 -0.111479 -0.0161924 0.173565 -0.0715249 0.00688091 0.191317 -0.126539 
0.0151697 0.133257 -0.137491 -0.0143298 0.237347 -0.0645554 0.00240886 0.264131 -0.131983 
0.00861238 0.192564 -0.14985 0 0.29984 -0.0193376 0 0.341506 -0.0915064 
0 0.269338 -0.133173 0 0.227671 -0.0610042 -0.00655471 0.0320777 -0.0116458 
0 0 0 0 0 0 -0.0112244 0.0687494 -0.0193829 
-0.0145587 0.111371 -0.0226559 -0.0158897 0.15964 -0.0182605 -0.0131554 0.211627 0.000310233 
0 0.258173 0.0528312 0 0.186004 0.0111645 0.000161536 0.0333724 0.0019909 
0 0 0 0 0 0 -0.00157416 0.0681237 0.00798658 
-0.00427891 0.106215 0.0183769 -0.0066161 0.146516 0.0356218 -0.00691079 0.186057 0.0652751 
0 0.216506 0.125 0 0.144338 0.0833333 0.00822793 0.0330156 0.0163413 
0 0 0 0 0 0 0.0104437 0.0665226 0.0363634 
0.00901832 0.101224 0.0608894 0.00520877 0.134424 0.0912086 0.000268986 0.16174 0.131526 
0 0.17484 0.197169 0 0.102671 0.155502 0.014199 0.0306939 0.0308545 
0 0 0 0 0 0 0.0189168 0.0633625 0.0650986 
0.0186466 0.0957883 0.104287 0.0150405 0.124317 0.149018 0.00632453 0.140396 0.199842 
0 0.133173 0.269338 0 0.0610042 0.227671 0.00985826 0.0269467 0.0443022 
0 0 0 0 0 0 0.0123636 0.0582565 0.0917568 
0.0121427 0.0880939 0.144971 0.012082 0.113047 0.204598 0.0125988 0.126176 0.271925 
0 0.0915064 0.341506 0 0.0193376 0.29984 -0.00412925 0.0145477 0.0394405 
-0.00665255 0.0319708 0.0861617 -0.00908405 0.047922 0.136091 -0.00933047 0.0590319 0.189694 
-0.00523101 0.0578018 0.246795 0.00434636 0.00518696 -0.040985 0 0 0 
0 0 0 0.00735466 0.0186032 -0.0797932 0.00873944 0.0414982 -0.116687 
0.00830729 0.0752836 -0.14886 0.00464066 0.122993 -0.171399 0 0.197169 -0.17484 
0 0.155502 -0.102671 0 0 0 0 0.113835 -0.0305021 
0 0 0 0 0.0721688 0.0416667 0 0 0 
0 0.0305021 0.113835 0 0 0 0 -0.0111645 0.186004 
0 0 0 0 -0.0528312 0.258173 -0.00258042 0.00254288 0.0415604 
-0.00599855 0.0057246 0.0850621 -0.00865868 0.0078149 0.130487 -0.00874122 0.00589552 0.17683 
-0.00416712 -0.00687198 0.22242 -0.00299038 -0.00894725 -0.0405845 0 0 0 
0 0 0 -0.0033074 -0.00982159 -0.0805507 -0.00302427 -0.0013721 -0.121275 
-0.00267994 0.0189108 -0.160999 -0.00235436 0.0555743 -0.195398 0 0.125 -0.216506 
0 0.0833333 -0.144338 0 0 0 0 0.0416667 -0.0721688 
0 0 0 0 0 0 0 0 0 
0 -0.0416667 0.0721688 0 0 0 0 -0.0833333 0.144338 
0 0 0 0 -0.125 0.216506 0.0037667 -0.0104421 0.0429842 
0.00331071 -0.0214306 0.0844049 0.00154868 -0.0332539 0.125225 0.000956179 -0.0478824 0.163897 
0.00306965 -0.0712979 0.197547 -0.00855339 -0.0223018 -0.0388285 0 0 0 
0 0 0 -0.0109998 -0.037043 -0.0802215 -0.0108864 -0.0427963 -0.124627 
-0.0109609 -0.0359399 -0.172458 -0.00911715 -0.010389 -0.220179 0 0.0528312 -0.258173 
0 0.0111645 -0.186004 0 0 0 0 -0.0305021 -0.113835 
0 0 0 0 -0.0721688 -0.0416667 0 0 0 
0 -0.113835 0.0305021 0 0 0 0 -0.155502 0.102671 
0 0 0 0 -0.197169 0.17484 0.0113753 -0.0240664 0.0423296 
0.0149631 -0.0494189 0.0822815 0.0146766 -0.0754645 0.11939 0.0133782 -0.102989 0.151124 
0.0118372 -0.136673 0.173337 -0.00909311 -0.034704 -0.0368561 0 0 0 
0 0 0 -0.0103387 -0.0631437 -0.0803649 -0.0076982 -0.0829291 -0.128236 
-0.0049645 -0.0900607 -0.18107 -0.00992625 -0.0764296 -0.243259 0 -0.0193376 -0.29984 
0 -0.0610042 -0.227671 0 0 0 0 -0.102671 -0.155502 
0 0 0 0 -0.144338 -0.0833333 0 0 0 
0 -0.186004 -0.0111645 0 0 0 0 -0.227671 0.0610042 
0 0 0 0 -0.269338 0.133173 0.0166577 -0.0372932 0.0392712 
0.0227753 -0.0770417 0.0780809 0.0239019 -0.117676 0.112469 0.0230051 -0.159107 0.138817 
0.0190824 -0.2035 0.151096 0.00337546 -0.0476674 -0.0381531 0 0 0 
0 0 0 0.0083944 -0.0900167 -0.0850203 0.0161995 -0.123232 -0.137125 
0.0260709 -0.143412 -0.19462 0.0332164 -0.144244 -0.258506 0 -0.0915064 -0.341506 
0 -0.133173 -0.269338 0 0 0 0 -0.17484 -0.197169 
0 0 0 0 -0.216506 -0.125 0 0 0 
0 -0.258173 -0.0528312 0 0 0 0 -0.29984 0.0193376 
0 0 0 0 -0.341506 0.0915064 0.00992749 -0.0474099 0.0335201 
0.0141135 -0.100371 0.0711604 0.0163707 -0.155232 0.103558 0.0187453 -0.211499 0.126148 
0.0188703 -0.271237 0.131422 0.0135355 -0.0488868 -0.026359 0.0191883 -0.0943013 -0.0598715 
0.0237781 -0.130726 -0.0982034 0.0277936 -0.155113 -0.142035 0.0270336 -0.162051 -0.194106 
0.00788291 -0.0509989 -0.0130976 0.0126335 -0.0966753 -0.0318476 0.0155903 -0.136351 -0.0557515 
0.0183451 -0.166788 -0.0860329 0.0186284 -0.183528 -0.126905 0.000521106 -0.0510681 2.85354e-05 
0.00139506 -0.0978878 -0.00440678 0.00280331 -0.141166 -0.0139547 0.00555571 -0.178875 -0.0309976 
0.00893119 -0.207255 -0.0611751 -0.00495559 -0.0491832 0.0122474 -0.00722649 -0.0975966 0.0218169 
-0.00718316 -0.144941 0.0263736 -0.00491508 -0.190437 0.0225873 0.00029266 -0.231592 0.0034005 
-0.00502854 -0.0465841 0.023377 -0.0069775 -0.0970644 0.0469603 -0.00667426 -0.148422 0.0654594 
-0.00483467 -0.200284 0.0748429 -0.00257501 -0.254354 0.0680268 
