<?xml version="1.0"?>
<VTKFile type="UnstructuredGrid"  version="0.1"  >
<UnstructuredGrid>
<Piece  NumberOfPoints="343" NumberOfCells="1296">
<Points>
<DataArray  type="Float64"  NumberOfComponents="3"  format="ascii">0 0 0  0.1666666666666667 0 0  0.3333333333333333 0 0  0.5 0 0  0.6666666666666666 0 0  0.8333333333333334 0 0  1 0 0  0 0.1666666666666667 0  0.1666666666666667 0.1666666666666667 0  0.3333333333333333 0.1666666666666667 0  0.5 0.1666666666666667 0  0.6666666666666666 0.1666666666666667 0  0.8333333333333334 0.1666666666666667 0  1 0.1666666666666667 0  0 0.3333333333333333 0  0.1666666666666667 0.3333333333333333 0  0.3333333333333333 0.3333333333333333 0  0.5 0.3333333333333333 0  0.6666666666666666 0.3333333333333333 0  0.8333333333333334 0.3333333333333333 0  1 0.3333333333333333 0  0 0.5 0  0.1666666666666667 0.5 0  0.3333333333333333 0.5 0  0.5 0.5 0  0.6666666666666666 0.5 0  0.8333333333333334 0.5 0  1 0.5 0  0 0.6666666666666666 0  0.1666666666666667 0.6666666666666666 0  0.3333333333333333 0.6666666666666666 0  0.5 0.6666666666666666 0  0.6666666666666666 0.6666666666666666 0  0.8333333333333334 0.6666666666666666 0  1 0.6666666666666666 0  0 0.8333333333333334 0  0.1666666666666667 0.8333333333333334 0  0.3333333333333333 0.8333333333333334 0  0.5 0.8333333333333334 0  0.6666666666666666 0.8333333333333334 0  0.8333333333333334 0.8333333333333334 0  1 0.8333333333333334 0  0 1 0  0.1666666666666667 1 0  0.3333333333333333 1 0  0.5 1 0  0.6666666666666666 1 0  0.8333333333333334 1 0  1 1 0  0 0 0.1666666666666667  0.1666666666666667 0 0.1666666666666667  0.3333333333333333 0 0.1666666666666667  0.5 0 0.1666666666666667  0.6666666666666666 0 0.1666666666666667  0.8333333333333334 0 0.1666666666666667  1 0 0.1666666666666667  0 0.1666666666666667 0.1666666666666667  0.1666666666666667 0.1666666666666667 0.1666666666666667  0.3333333333333333 0.1666666666666667 0.1666666666666667  0.5 0.1666666666666667 0.1666666666666667  0.6666666666666666 0.1666666666666667 0.1666666666666667  0.8333333333333334 0.1666666666666667 0.1666666666666667  1 0.1666666666666667 0.1666666666666667  0 0.3333333333333333 0.1666666666666667  0.1666666666666667 0.3333333333333333 0.1666666666666667  0.3333333333333333 0.3333333333333333 0.1666666666666667  0.5 0.3333333333333333 0.1666666666666667  0.6666666666666666 0.3333333333333333 0.1666666666666667  0.8333333333333334 0.3333333333333333 0.1666666666666667  1 0.3333333333333333 0.1666666666666667  0 0.5 0.1666666666666667  0.1666666666666667 0.5 0.1666666666666667  0.3333333333333333 0.5 0.1666666666666667  0.5 0.5 0.1666666666666667  0.6666666666666666 0.5 0.1666666666666667  0.8333333333333334 0.5 0.1666666666666667  1 0.5 0.1666666666666667  0 0.6666666666666666 0.1666666666666667  0.1666666666666667 0.6666666666666666 0.1666666666666667  0.3333333333333333 0.6666666666666666 0.1666666666666667  0.5 0.6666666666666666 0.1666666666666667  0.6666666666666666 0.6666666666666666 0.1666666666666667  0.8333333333333334 0.6666666666666666 0.1666666666666667  1 0.6666666666666666 0.1666666666666667  0 0.8333333333333334 0.1666666666666667  0.1666666666666667 0.8333333333333334 0.1666666666666667  0.3333333333333333 0.8333333333333334 0.1666666666666667  0.5 0.8333333333333334 0.1666666666666667  0.6666666666666666 0.8333333333333334 0.1666666666666667  0.8333333333333334 0.8333333333333334 0.1666666666666667  1 0.8333333333333334 0.1666666666666667  0 1 0.1666666666666667  0.1666666666666667 1 0.1666666666666667  0.3333333333333333 1 0.1666666666666667  0.5 1 0.1666666666666667  0.6666666666666666 1 0.1666666666666667  0.8333333333333334 1 0.1666666666666667  1 1 0.1666666666666667  0 0 0.3333333333333333  0.1666666666666667 0 0.3333333333333333  0.3333333333333333 0 0.3333333333333333  0.5 0 0.3333333333333333  0.6666666666666666 0 0.3333333333333333  0.8333333333333334 0 0.3333333333333333  1 0 0.3333333333333333  0 0.1666666666666667 0.3333333333333333  0.1666666666666667 0.1666666666666667 0.3333333333333333  0.3333333333333333 0.1666666666666667 0.3333333333333333  0.5 0.1666666666666667 0.3333333333333333  0.6666666666666666 0.1666666666666667 0.3333333333333333  0.8333333333333334 0.1666666666666667 0.3333333333333333  1 0.1666666666666667 0.3333333333333333  0 0.3333333333333333 0.3333333333333333  0.1666666666666667 0.3333333333333333 0.3333333333333333  0.3333333333333333 0.3333333333333333 0.3333333333333333  0.5 0.3333333333333333 0.3333333333333333  0.6666666666666666 0.3333333333333333 0.3333333333333333  0.8333333333333334 0.3333333333333333 0.3333333333333333  1 0.3333333333333333 0.3333333333333333  0 0.5 0.3333333333333333  0.1666666666666667 0.5 0.3333333333333333  0.3333333333333333 0.5 0.3333333333333333  0.5 0.5 0.3333333333333333  0.6666666666666666 0.5 0.3333333333333333  0.8333333333333334 0.5 0.3333333333333333  1 0.5 0.3333333333333333  0 0.6666666666666666 0.3333333333333333  0.1666666666666667 0.6666666666666666 0.3333333333333333  0.3333333333333333 0.6666666666666666 0.3333333333333333  0.5 0.6666666666666666 0.3333333333333333  0.6666666666666666 0.6666666666666666 0.3333333333333333  0.8333333333333334 0.6666666666666666 0.3333333333333333  1 0.6666666666666666 0.3333333333333333  0 0.8333333333333334 0.3333333333333333  0.1666666666666667 0.8333333333333334 0.3333333333333333  0.3333333333333333 0.8333333333333334 0.3333333333333333  0.5 0.8333333333333334 0.3333333333333333  0.6666666666666666 0.8333333333333334 0.3333333333333333  0.8333333333333334 0.8333333333333334 0.3333333333333333  1 0.8333333333333334 0.3333333333333333  0 1 0.3333333333333333  0.1666666666666667 1 0.3333333333333333  0.3333333333333333 1 0.3333333333333333  0.5 1 0.3333333333333333  0.6666666666666666 1 0.3333333333333333  0.8333333333333334 1 0.3333333333333333  1 1 0.3333333333333333  0 0 0.5  0.1666666666666667 0 0.5  0.3333333333333333 0 0.5  0.5 0 0.5  0.6666666666666666 0 0.5  0.8333333333333334 0 0.5  1 0 0.5  0 0.1666666666666667 0.5  0.1666666666666667 0.1666666666666667 0.5  0.3333333333333333 0.1666666666666667 0.5  0.5 0.1666666666666667 0.5  0.6666666666666666 0.1666666666666667 0.5  0.8333333333333334 0.1666666666666667 0.5  1 0.1666666666666667 0.5  0 0.3333333333333333 0.5  0.1666666666666667 0.3333333333333333 0.5  0.3333333333333333 0.3333333333333333 0.5  0.5 0.3333333333333333 0.5  0.6666666666666666 0.3333333333333333 0.5  0.8333333333333334 0.3333333333333333 0.5  1 0.3333333333333333 0.5  0 0.5 0.5  0.1666666666666667 0.5 0.5  0.3333333333333333 0.5 0.5  0.5 0.5 0.5  0.6666666666666666 0.5 0.5  0.8333333333333334 0.5 0.5  1 0.5 0.5  0 0.6666666666666666 0.5  0.1666666666666667 0.6666666666666666 0.5  0.3333333333333333 0.6666666666666666 0.5  0.5 0.6666666666666666 0.5  0.6666666666666666 0.6666666666666666 0.5  0.8333333333333334 0.6666666666666666 0.5  1 0.6666666666666666 0.5  0 0.8333333333333334 0.5  0.1666666666666667 0.8333333333333334 0.5  0.3333333333333333 0.8333333333333334 0.5  0.5 0.8333333333333334 0.5  0.6666666666666666 0.8333333333333334 0.5  0.8333333333333334 0.8333333333333334 0.5  1 0.8333333333333334 0.5  0 1 0.5  0.1666666666666667 1 0.5  0.3333333333333333 1 0.5  0.5 1 0.5  0.6666666666666666 1 0.5  0.8333333333333334 1 0.5  1 1 0.5  0 0 0.6666666666666666  0.1666666666666667 0 0.6666666666666666  0.3333333333333333 0 0.6666666666666666  0.5 0 0.6666666666666666  0.6666666666666666 0 0.6666666666666666  0.8333333333333334 0 0.6666666666666666  1 0 0.6666666666666666  0 0.1666666666666667 0.6666666666666666  0.1666666666666667 0.1666666666666667 0.6666666666666666  0.3333333333333333 0.1666666666666667 0.6666666666666666  0.5 0.1666666666666667 0.6666666666666666  0.6666666666666666 0.1666666666666667 0.6666666666666666  0.8333333333333334 0.1666666666666667 0.6666666666666666  1 0.1666666666666667 0.6666666666666666  0 0.3333333333333333 0.6666666666666666  0.1666666666666667 0.3333333333333333 0.6666666666666666  0.3333333333333333 0.3333333333333333 0.6666666666666666  0.5 0.3333333333333333 0.6666666666666666  0.6666666666666666 0.3333333333333333 0.6666666666666666  0.8333333333333334 0.3333333333333333 0.6666666666666666  1 0.3333333333333333 0.6666666666666666  0 0.5 0.6666666666666666  0.1666666666666667 0.5 0.6666666666666666  0.3333333333333333 0.5 0.6666666666666666  0.5 0.5 0.6666666666666666  0.6666666666666666 0.5 0.6666666666666666  0.8333333333333334 0.5 0.6666666666666666  1 0.5 0.6666666666666666  0 0.6666666666666666 0.6666666666666666  0.1666666666666667 0.6666666666666666 0.6666666666666666  0.3333333333333333 0.6666666666666666 0.6666666666666666  0.5 0.6666666666666666 0.6666666666666666  0.6666666666666666 0.6666666666666666 0.6666666666666666  0.8333333333333334 0.6666666666666666 0.6666666666666666  1 0.6666666666666666 0.6666666666666666  0 0.8333333333333334 0.6666666666666666  0.1666666666666667 0.8333333333333334 0.6666666666666666  0.3333333333333333 0.8333333333333334 0.6666666666666666  0.5 0.8333333333333334 0.6666666666666666  0.6666666666666666 0.8333333333333334 0.6666666666666666  0.8333333333333334 0.8333333333333334 0.6666666666666666  1 0.8333333333333334 0.6666666666666666  0 1 0.6666666666666666  0.1666666666666667 1 0.6666666666666666  0.3333333333333333 1 0.6666666666666666  0.5 1 0.6666666666666666  0.6666666666666666 1 0.6666666666666666  0.8333333333333334 1 0.6666666666666666  1 1 0.6666666666666666  0 0 0.8333333333333334  0.1666666666666667 0 0.8333333333333334  0.3333333333333333 0 0.8333333333333334  0.5 0 0.8333333333333334  0.6666666666666666 0 0.8333333333333334  0.8333333333333334 0 0.8333333333333334  1 0 0.8333333333333334  0 0.1666666666666667 0.8333333333333334  0.1666666666666667 0.1666666666666667 0.8333333333333334  0.3333333333333333 0.1666666666666667 0.8333333333333334  0.5 0.1666666666666667 0.8333333333333334  0.6666666666666666 0.1666666666666667 0.8333333333333334  0.8333333333333334 0.1666666666666667 0.8333333333333334  1 0.16666666666
[...]
<PointData  Vectors="u"> 
<DataArray  type="Float64"  Name="u"  NumberOfComponents="3" format="ascii">0.0000000000000000e+00 0.0000000000000000e+00 0.0000000000000000e+00  3.1511677497297981e-03 3.3449694294337300e-02 -3.8729351739305251e-02  5.6290663957032829e-03 7.6305343942209891e-02 -7.4609041719005856e-02  7.3008397017202383e-03 1.2862755328675290e-01 -1.0503051234937569e-01  6.8809050712225969e-03 1.9131738566236217e-01 -1.2653943466776035e-01  2.4088631137679341e-03 2.6413085165905997e-01 -1.3198265019570918e-01  0.0000000000000000e+00 3.4150635094610959e-01 -9.1506350946109677e-02  0.0000000000000000e+00 0.0000000000000000e+00 0.0000000000000000e+00  -8.4597717483320019e-03 3.0495783134908649e-02 -2.4594081226558585e-02  -1.2528577783510230e-02 7.0098344206343505e-02 -4.6236978810307222e-02  -1.4972750479583892e-02 1.1760864138440044e-01 -6.3035031923737841e-02  -1.6192448302909442e-02 1.7356491710202662e-01 -7.1524875412261740e-02  -1.4329800469274682e-02 2.3734650569627433e-01 -6.4555447937709939e-02  0.0000000000000000e+00 2.9983968427944296e-01 -1.9337567297406488e-02  0.0000000000000000e+00 0.0000000000000000e+00 0.0000000000000000e+00  -6.5547102203653094e-03 3.2077724647542855e-02 -1.1645824093636601e-02  -1.1224436890525413e-02 6.8749369822817624e-02 -1.9382887293059980e-02  -1.4558674111283074e-02 1.1137113088710643e-01 -2.2655864794122238e-02  -1.5889661823200712e-02 1.5963955871743404e-01 -1.8260451726903718e-02  -1.3155413715151996e-02 2.1162715292141027e-01 3.1023347636665547e-04  0.0000000000000000e+00 2.5817301761277633e-01 5.2831216351296756e-02  0.0000000000000000e+00 0.0000000000000000e+00 0.0000000000000000e+00  1.6153576711807829e-04 3.3372444941054479e-02 1.9908986722065895e-03  -1.5741581177180638e-03 6.8123658001662937e-02 7.9865769528334324e-03  -4.2789139679774175e-03 1.0621463361844936e-01 1.8376913893824752e-02  -6.6160971759336657e-03 1.4651642379775079e-01 3.5621774429250790e-02  -6.9107873424773510e-03 1.8605675339309374e-01 6.5275145844093788e-02  0.0000000000000000e+00 2.1650635094610965e-01 1.2499999999999997e-01  0.0000000000000000e+00 0.0000000000000000e+00 0.0000000000000000e+00  8.2279282712203836e-03 3.3015568724956347e-02 1.6341335965570036e-02  1.0443728865547102e-02 6.6522629799960209e-02 3.6363402470735086e-02  9.0183222279838476e-03 1.0122356010261768e-01 6.0889424644377632e-02  5.2087743689631788e-03 1.3442376147601709e-01 9.1208554217355520e-02  2.6898579870505984e-04 1.6174024085355895e-01 1.3152613938792904e-01  0.0000000000000000e+00 1.7483968427944302e-01 1.9716878364870319e-01  0.0000000000000000e+00 0.0000000000000000e+00 0.0000000000000000e+00  1.4198971720931033e-02 3.0693943315122034e-02 3.0854483359473269e-02  1.8916823144634640e-02 6.3362478674349160e-02 6.5098561190057067e-02  1.8646633923626078e-02 9.5788314512926992e-02 1.0428736982292536e-01  1.5040541359437864e-02 1.2431675136902834e-01 1.4901803761874133e-01  6.3245336677483074e-03 1.4039559132867740e-01 1.9984227315751196e-01  0.0000000000000000e+00 1.3317301761277639e-01 2.6933756729740643e-01  0.0000000000000000e+00 0.0000000000000000e+00 0.0000000000000000e+00  9.8582574940937664e-03 2.6946689466897156e-02 4.4302150583985137e-02  1.2363622118027336e-02 5.8256468963967002e-02 9.1756809539727827e-02  1.2142749536124856e-02 8.8093930132969372e-02 1.4497069023229767e-01  1.2082027394024935e-02 1.1304748306022858e-01 2.0459817263809035e-01  1.2598811853769454e-02 1.2617601404684031e-01 2.7192459782620687e-01  0.0000000000000000e+00 9.1506350946109594e-02 3.4150635094610959e-01  0.0000000000000000e+00 0.0000000000000000e+00 0.0000000000000000e+00  9.9245247359262111e-03 1.9501909947924022e-02 -3.9936739609705903e-02  1.4520803993292933e-02 4.7858875431862333e-02 -7.7904625683400466e-02  1.6390828977490470e-02 8.5480209782673899e-02 -1.1147864524169719e-01  1.5169682456646010e-02 1.3325714132890343e-01 -1.3749053182511650e-01  8.6123754322841375e-03 1.9256364366164708e-01 -1.4984980014881538e-01  0.0000000000000000e+00 2.6933756729740643e-01 -1.3317301761277633e-01  0.0000000000000000e+00 0.0000000000000000e+00 0.0000000000000000e+00  -1.0107191091718846e-03 1.6822981679167751e-02 -2.4941377825195635e-02  -2.9319033698298079e-03 4.2771434701122768e-02 -4.8887873845872079e-02  -5.4949836778832046e-03 7.6288082215762221e-02 -6.8790531417271469e-02  -8.2629448162040309e-03 1.1821468788967986e-01 -8.1755847517697225e-02  -9.2269947982073618e-03 1.6934346361576089e-01 -8.2366056983801908e-02  0.0000000000000000e+00 2.2767090063073975e-01 -6.1004233964073146e-02  0.0000000000000000e+00 0.0000000000000000e+00 0.0000000000000000e+00  -3.3457119717797512e-03 1.7921408061440762e-02 -1.1102145793416295e-02  -7.7886621866235864e-03 4.0998700289173538e-02 -2.0925195759599991e-02  -1.1916536468944732e-02 6.9905325627663828e-02 -2.7159564661218941e-02  -1.4809402984463043e-02 1.0462661659228624e-01 -2.7385530347956152e-02  -1.3410915585428899e-02 1.4451751586119424e-01 -1.7029826774861992e-02  0.0000000000000000e+00 1.8600423396407315e-01 1.1164549684630098e-02  0.0000000000000000e+00 0.0000000000000000e+00 0.0000000000000000e+00  -2.4969890508336015e-03 1.8850597303867116e-02 1.8859526476611007e-03  -6.2178135245770970e-03 3.9963272461187124e-02 6.3452242151256508e-03  -1.0419144178878622e-02 6.4400726937224984e-02 1.3933475727167279e-02  -1.3784376037251571e-02 9.1385697001544350e-02 2.6447314479717193e-02  -1.2871511817302603e-02 1.1911468536975725e-01 4.7703100188775313e-02  0.0000000000000000e+00 1.4433756729740643e-01 8.3333333333333301e-02  0.0000000000000000e+00 0.0000000000000000e+00 0.0000000000000000e+00  -4.9597030388246193e-04 1.8582559527888672e-02 1.4639791767080962e-02  -2.3020576979138779e-03 3.8283919557335379e-02 3.3470004623293893e-02  -5.7816036131010887e-03 5.9207249721787689e-02 5.5137260175081637e-02  -9.8910773253902927e-03 7.9092293984677972e-02 8.0602219032009509e-02  -1.0948684518730722e-02 9.4657294070147530e-02 1.1272517812170825e-01  0.0000000000000000e+00 1.0267090063073986e-01 1.5550211698203653e-01  0.0000000000000000e+00 0.0000000000000000e+00 0.0000000000000000e+00  4.8266220657350355e-04 1.6868782969190924e-02 2.7337646596563837e-02  -1.3312937567574009e-04 3.5483201224839910e-02 6.0364049609834769e-02  -2.6903723045782562e-03 5.3933704385756474e-02 9.6298601168315845e-02  -6.1325777714052896e-03 6.8872104018094848e-02 1.3557674551558793e-01  -9.1211243293556066e-03 7.2975808553061697e-02 1.7852296395922129e-01  0.0000000000000000e+00 6.1004233964073118e-02 2.2767090063073975e-01  0.0000000000000000e+00 0.0000000000000000e+00 0.0000000000000000e+00  -4.1292535648604764e-03 1.4547660679417831e-02 3.9440504953468174e-02  -6.6525482185349049e-03 3.1970829240378952e-02 8.6161664724473008e-02  -9.0840499651827691e-03 4.7921987964889480e-02 1.3609065176742693e-01  -9.3304738820326524e-03 5.9031943218120199e-02 1.8969406564416597e-01  -5.2310079468648263e-03 5.7801774263087594e-02 2.4679463090768342e-01  0.0000000000000000e+00 1.9337567297406433e-02 2.9983968427944296e-01  0.0000000000000000e+00 0.0000000000000000e+00 0.0000000000000000e+00  4.3463567276464925e-03 5.1869633815422910e-03 -4.0985005697725452e-02  7.3546633350692813e-03 1.8603155833148026e-02 -7.9793170083902007e-02  8.7394422439832139e-03 4.1498178259093896e-02 -1.1668668368529980e-01  8.3072941610952359e-03 7.5283642617855695e-02 -1.4886000160699653e-01  4.6406594198477921e-03 1.2299253619387086e-01 -1.7139900994577267e-01  0.0000000000000000e+00 1.9716878364870322e-01 -1.7483968427944299e-01  0.0000000000000000e+00 0.0000000000000000e+00 0.0000000000000000e+00  -1.6478673476817492e-03 3.5136654650015954e-03 -2.6335328741969879e-02  -3.4191055994127859e-03 1.5241402046824440e-02 -5.1216565938781378e-02  -6.2940164377385619e-03 3.4701640650726708e-02 -7.4365866591613594e-02  -9.1847524057513553e-03 6.3234576909060716e-02 -9.3329463060400394e-02  -9.6038218552915999e-03 1.0287614508087274e-01 -1.0419064887057883e-01  0.0000000000000000e+00 1.5550211698203653e-01 -1.0267090063073980e-01  0.0000000000000000e+00 0.0000000000000000e+00 0.0000000000000000e+00  -3.6380237865926883e-03 3.8952397812250798e-03 -1.2002163316996247e-02  -8.0184166680019632e-03 1.3315990112328296e-02 -2.3239286644365479e-02  -1.2669796831074340e-02 2.8653824394378268e-02 -3.2922106455014304e-02  -1.5959256951540074e-02 5.0456231213580761e-02 -3.9234256257494562e-02  -1.4206476447342287e-02 7.9209733292397222e-02 -3.9274925344464168e-02  0.0000000000000000e+00 1.1383545031536987e-01 -3.0502116982036559e-02  0.0000000000000000e+00 0.0000000000000000e+00 0.0000000000000000e+00  -3.8414654019422274e-03 4.3808909459860847e-03 1.5344042620550106e-03  -8.6162373425356480e-03 1.1936113517709708e-02 4.1495828015800634e-03  -1.3746171946009317e-02 2.2964090538321585e-02 8.0077595223122730e-03  -1.7343876795789217e-02 3.7281227820290336e-02 1.4248594379508570e-02  -1.5226488907546189e-02 5.4158951847872769e-02 2.4980710776200208e-02  0.0000000000000000e+00 7.2168783648703216e-02 4.1666666666666657e-02  0.0000000000000000e+00 0.0000000000000000e+00 0.0000000000000000e+00  -3.0361604606621156e-03 4.2585537158030939e-03 1.4765817920091143e-02  -7.0276293703092300e-03 1.0217990281301629e-02 3.1224960604525759e-02  -1.1687150783335924e-02 1.7612093189805157e-02 4.8836868554742362e-02  -1.5798295790416899e-02 2.4779121955369333e-02 6.7735779240568228e-02  -1.4779268770211308e-02 2.9567388756763079e-02 8.9200639213416449e-02  0.0000000000000000e+00 3.0502116982036587e-02 1.1383545031536987e-01  0.0000000000000000e+00 0.0000000000000000e+00 0.0000000000000000e+00  -2.1463987336717625e-03 3.3301295651628729e-03 2.8113277254497700e-02  -5.1555404357714052e-03 7.8624861608011104e-03 5.8203661985217849e-02  -8.6698601124956514e-03 1.2532840041918887e-02 8.9704932530004972e-02  -1.1901312653134224e-02 1.4616282081169045e-02 1.2204264805811478e-01  -1.3161535562203843e-02 7.5878479047742694e-03 1.5399798322137404e-01  0.0000000000000000e+00 -1.1164549684630098e-02 1.8600423396407309e-01  0.0000000000000000e+00 0.0000000000000000e+00 0.0000000000000000e+00  -2.5804220231686742e-03 2.5428849376412641e-03 4.1560372456416646e-02  -5.9985478668807442e-03 5.7245996644477706e-03 8.5062094517817960e-02  -8.6586824331907012e-03 7.8149035074318775e-03 1.3048684472758984e-01  -8.7412239148996450e-03 5.8955165836623641e-03 1.7683013824499361e-01  -4.1671223714882747e-03 -6.8719799207442520e-03 2.2242035988032544e-01  0.0000000000000000e+00 -5.2831216351296784e-02 2.5817301761277633e-01  0.0000000000000000e+00 0.0000000000000000e+00 0.0000000000000000e+00  -2.9903753336619561e-03 -8.9472456049612438e-03 -4.0584518766508627e-02  -3.3074027828764560e-03 -9.8215945018857199e-03 -8.0550708518394368e-02  -3.0242709797812981e-03 -1.3721018697446105e-03 -1.2127485828885462e-01  -2.6799422367244641e-03 1.8910842849027904e-02 -1.6099909462911755e-01  -2.3543641537588371e-03 5.5574306704473747e-02 -1.9539813022096164e-01  0.0000000000000000e+00 1.2499999999999997e-01 -2.1650635094610965e-01  0.0000000000000000e+00 0.0000000000000000e+00 0.0000000000000000e+00  -3.0429757416978250e-03 -9.4377742422012811e-03 -2.6456220239253887e-02  -6.0871144335655240e-03 -1.2167084993557462e-02 -5.2797029242964914e-02  -9.4821574073057479e-03 -6.7832236495489352e-03 -7.9690783359346762e-02  -1.2330909830774592e-02 8.7214722315556957e-03 -1.0586343311385241e-01  -1.1544596075494675e-02 3.7324691285910240e-02 -1.2842062747254315e-01  0.0000000000000000e+00 8.3333333333333301e-02 -1.4433756729740646e-01  0.0000000000000000e+00 0.0000000000000000e+00 0.0000000000000000e+00  -3.8268945558577339e-03 -9.6409793470002818e-03 -1.2270595527242171e-02  -8.4056801086967014e-03 -1.4161223220607467e-02 -2.5247753051399938e-02  -1.3321565517531893e-02 -1.2468652255991723e-02 -3.8736049902476602e-02  -1.6900339309471789e-02 -3.3132428142929448e-03 -5.2144441947764061e-02  -1.4909451305096433e-02 1.4620524697279098e-02 -6.3749909307297126e-02  0.0000000000000000e+00 4.1666666666666657e-02 -7.2168783648703216e-02  0.0000000000000000e+00 0.0000000000000000e+00 0.0000000000000000e+00  -4.0265671889008516e-03 -9.5196324131906467e-03 1.4200747511221683e-03  -9.0033830316573679e-03 -1.5801550786886911e-02 2.1155327576049170e-03  -1.4439136691116256e-02 -1.8218311210260740e-02 1.9824270973856305e-03  -1.8353458816008594e-02 -1.6363714773430470e-02 1.0748655547482609e-03  -1.6006343049022233e-02 -1.0113223870905463e-02 2.5115674638108811e-04  0.0000000000000000e+00 0.0000000000000000e+00 0.0000000000000000e+00  0.0000000000000000e+00 0.0000000000000000e+00 0.0000000000000000e+00  -3.1911827770426471e-03 -9.4599627104085052e-03 1.4987973294303033e-02  -7.4489118595497152e-03 -1.7489358444722460e-02 2.9383687086756125e-02  -1.2444123767151743e-02 -2.3657708957613030e-02 4.2758715001169567e-02  -1.6930443591653906e-02 -2.9055531597767310e-02 5.4332736824162640e-02  -1.5705473892315983e-02 -3.4879345817881775e-02 6.4137713588507131e-02  0.0000000000000000e+00 -4.1666666666666630e-02 7.2168783648703216e-02  0.0000000000000000e+00 0.0000000000000000e+00 0.0000000000000000e+00  -1.0331278513829236e-03 -9.8477301077743041e-03 2.8842374602957278e-02  -3.5198870408975898e-03 -1.9581173538422189e-02 5.6766020133344149e-02  -6.9714082908760404e-03 -2.8743555900142038e-02 8.3776054693506269e-02  -1.0602837813380790e-02 -3.9326063217295010e-02 1.0860188650630034e-01  -1.3006549373955867e-02 -5.7260620522860281e-02 1.2863239326532011e-01  0.0000000000000000e+00 -8.3333333333333315e-02 1.4433756729740643e-01  0.0000000000000000e+00 0.0000000000000000e+00 0.0000000000000000e+00  3.7666981735813504e-03 -1.0442110637618400e-02 4.2984236965256502e-02  3.3107096711311765e-03 -2.1430577160092047e-02 8.4404909617068771e-02  1.5486808525403016e-03 -3.3253868127772181e-02 1.2522532772878428e-01  9.5617878324592745e-04 -4.7882426894773671e-02 1.6389689482107692e-01  3.0696496312856889e-03 -7.1297884650094262e-02 1.9754697455508266e-01  0.0000000000000000e+00 -1.2500000000000000e-01 2.1650635094610965e-01  0.0000000000000000e+00 0.0000000000000000e+00 0.0000000000000000e+00  -8.5533946180053923e-03 -2.2301795661221188e-02 -3.8828464120888827e-02  -1.0999791542518933e-02 -3.7043035398858913e-02 -8.0221459678792392e-02  -1.0886397267589552e-02 -4.2796310766183510e-02 -1.2462729403495411e-01  -1.0960923921670817e-02 -3.5939946334596830e-02 -1.7245750191359333e-01  -9.1171493378194492e-03 -1.0388997380932621e-02 -2.2017923479932500e-01  0.0000000000000000e+00 5.2831216351296770e-02 -2.5817301761277633e-01  0.0000000000000000e+00 0.0000000000000000e+00 0.0000000000000000e+00  -2.8854835570682963e-03 -2.2349662749601189e-02 -2.5633071309113919e-02  -6.1684205942979979e-03 -3.9488827109817597e-02 -5.3748736155735173e-02  -9.2729295034907813e-03 -4.8205568747599729e-02 -8.4459975574894916e-02  -1.2692403382451162e-02 -4.5571834222156542e-02 -1.1820758179436540e-01  -1.2622245937403385e-02 -2.7706008194623342e-02 -1.5341552728787308e-01  0.0000000000000000e+00 1.1164549684630098e-02 -1.8600423396407312e-01  0.0000000000000000e+00 0.0000000000000000e+00 0.0000000000000000e+00  -2.8185493858119636e-03 -2.3167513667303005e-02 -1.2088161796665817e-02  -6.4730346870885214e-03 -4.1650328792339805e-02 -2.6840111774335592e-02  -1.0800911323293794e-02 -5.3760692478934675e-02 -4.4047369338528590e-02  -1.4983708383787970e-02 -5.7178742715079223e-02 -6.4701055581769695e-02  -1.4413517065693437e-02 -4.9740887669209380e-02 -8.8582980046754314e-02  0.0000000000000000e+00 -3.0502116982036559e-02 -1.1383545031536987e-01  0.0000000000000000e+00 0.0000000000000000e+00 0.0000000000000000e+00  -3.1992507745753473e-03 -2.3281871418611703e-02 1.2588971409971891e-03  -7.2821030490290680e-03 -4.3403033155180952e-02 2.5238656224252153e-04  -1.2116749259554483e-02 -5.9435266001431356e-02 -3.5028047470592343e-03  -1.6473448026318723e-02 -7.0066547624425463e-02 -1.1449053654214241e-02  -1.5395122871261571e-02 -7.4222244315019503e-02 -2.4367000491291362e-02  0.0000000000000000e+00 -7.2168783648703216e-02 -4.1666666666666630e-02  0.0000000000000000e+00 0.0000000000000000e+00 0.0000000000000000e+00  -2.3583839129331860e-03 -2.2907988661866656e-02 1.4651647421376592e-02  -5.8333135091125417e-03 -4.4888495732605331e-02 2.7426849024384366e-02  -1.0332863189680991e-02 -6.4825337595167301e-02 3.7186500296051243e-02  -1.5211935210723941e-02 -8.2886508282802890e-02 4.1840594431540507e-02  -1.5172893558307789e-02 -9.9210173031569177e-02 3.9651148766492172e-02  0.0000000000000000e+00 -1.1383545031536985e-01 3.0502116982036587e-02  0.0000000000000000e+00 0.0000000000000000e+00 0.0000000000000000e+00  1.1808711506801628e-03 -2.2831167087191587e-02 2.8377268683834566e-02  2.3582519486502914e-04 -4.6805750648023288e-02 5.4765312385509475e-02  -2.4705941213743528e-03 -7.0062465136076141e-02 7.8120092766551436e-02  -6.5964311118233898e-03 -9.3524467336831604e-02 9.6029590443465415e-02  -1.1431287720283919e-02 -1.2217777294111455e-01 1.0420950972853818e-01  0.0000000000000000e+00 -1.5550211698203653e-01 1.0267090063073980e-01  0.0000000000000000e+00 0.0000000000000000e+00 0.0000000000000000e+00  1.1375303133186635e-02 -2.4066431430134275e-02 4.2329563074173744e-02  1.4963102414648438e-02 -4.9418914551256160e-02 8.2281466899177910e-02  1.4676560021220935e-02 -7.5464533179063834e-02 1.1939028467999704e-01  1.3378169722615456e-02 -1.0298920798953499e-01 1.5112418907434166e-01  1.1837193924967631e-02 -1.3667311926050058e-01 1.7333669697451173e-01  0.0000000000000000e+00 -1.9716878364870322e-01 1.7483968427944302e-01  0.0000000000000000e+00 0.0000000000000000e+00 0.0000000000000000e+00  -9.0931125577729827e-03 -3.4704001679220622e-02 -3.6856094026207147e-02  -1.0338675927386232e-02 -6.3143725582500407e-02 -8.0364891878340547e-02  -7.6981967794542017e-03 -8.2929080603940011e-02 -1.2823562618903037e-01  -4.9644991656244064e-03 -9.0060666290057587e-02 -1.8107000751076810e-01  -9.9262461772857448e-03 -7.6429564431502978e-02 -2.4325877987881930e-01  0.0000000000000000e+00 -1.9337567297406488e-02 -2.9983968427944296e-01  0.0000000000000000e+00 0.0000000000000000e+00 0.0000000000000000e+00  8.7651383913054986e-04 -3.5485312314165844e-02 -2.4948686581172701e-02  2.0642377967647343e-04 -6.6796808269634272e-02 -5.5372745932774955e-02  -2.5488861274879879e-04 -8.9553530849610319e-02 -8.9696317853020666e-02  -2.0588781287328543e-03 -1.0053886625358555e-01 -1.2892409198133148e-01  -8.1625561238828671e-03 -9.3148083398262624e-02 -1.7687556430961879e-01  0.0000000000000000e+00 -6.1004233964073160e-02 -2.2767090063073980e-01  0.0000000000000000e+00 0.0000000000000000e+00 0.0000000000000000e+00  2.9778421203560359e-04 -3.7050204423902472e-02 -1.2132195662489159e-02  -3.4817216528735807e-04 -6.9286598069604036e-02 -2.8795359408669844e-02  -2.0880247497183603e-03 -9.5253631269415398e-02 -4.9285104309122578e-02  -4.9095302944444008e-03 -1.1201575193270431e-01 -7.5290517214284758e-02  -9.4976275567432936e-03 -1.1469630779556396e-01 -1.1139824513586472e-01  0.0000000000000000e+00 -1.0267090063073980e-01 -1.5550211698203653e-01  0.0000000000000000e+00 0.0000000000000000e+00 0.0000000000000000e+00  -1.6183999036813034e-03 -3.7256924405709144e-02 7.0283263001503777e-04  -3.6222434713928929e-03 -7.0941792834292278e-02 -1.9011643261699978e-03  -6.2305204770903436e-03 -1.0066228876126418e-01 -8.5762329672347901e-03  -9.1265663206753882e-03 -1.2455091822992892e-01 -2.1689254776986008e-02  -1.1543018222478746e-02 -1.3887656652241281e-01 -4.6532111558911862e-02  0.0000000000000000e+00 -1.4433756729740646e-01 -8.3333333333333315e-02  0.0000000000000000e+00 0.0000000000000000e+00 0.0000000000000000e+00  -1.9877172685002198e-03 -3.6293856574748928e-02 1.3518350611798681e-02  -4.4414532468986462e-03 -7.1824301641428639e-02 2.4931643130716667e-02  -7.3289727392556276e-03 -1.0560168964117694e-01 3.2009034078477105e-02  -1.0720194792931065e-02 -1.3710238027266416e-01 3.1697766340552422e-02  -1.2694924477552116e-02 -1.6392037504369764e-01 1.7970048766930799e-